 Gaussian 03, Revision E.01,
 Gaussian 03:  ES64L-G09RevE.01 30-Nov-2015

 ---------------------------------------------
 # tpssh/6-31G* symm=loos gfoldprint pop(full)
 ---------------------------------------------

 -----
 Auh2f
 -----
 Symbolic Z-matrix:
 Charge =  0 Multiplicity = 1

                         Standard orientation:
 ---------------------------------------------------------------------
 Center     Atomic      Atomic             Coordinates (Angstroms)
 Number     Number       Type             X           Y           Z
 ---------------------------------------------------------------------
      1         12           0       -0.000000   -0.000000    0.000000
      2          1           0        0.000000    0.000000    1.718267
      3          1           0        0.000000    0.000000   -1.718267
 ---------------------------------------------------------------------

 SCF Done:  E(RTPSSh) =  -201.236979830     A.U. after    8 cycles

 The electronic state is 1-SGG.
 Alpha  occ. eigenvalues --  -46.70543  -3.06539  -1.80469  -1.80469  -1.79494
 Alpha  occ. eigenvalues --   -0.29144  -0.24671
 Alpha virt. eigenvalues --   -0.02849  -0.02849   0.00123   0.09254   0.10943
 Alpha virt. eigenvalues --    0.17148   0.17148   0.25448   0.25448   0.28540
 Alpha virt. eigenvalues --    0.29637   0.29638   0.46823   0.81444   1.06485

 Mulliken charges:
               1
     1  Mg   0.238553
     2  H   -0.119277
     3  H   -0.119277
 Sum of Mulliken charges =   0.00000

 Dipole moment (field-independent basis, Debye):
    X=             -0.0000    Y=             -0.0000    Z=              0.0000  Tot=              0.0000
 Quadrupole moment (field-independent basis, Debye-Ang):
   XX=            -10.5797   YY=            -10.5797   ZZ=            -22.5384
   XY=              0.0000   XZ=              0.0000   YZ=             -0.0000

 1\1\ WCSS.PL-BEM-NODE1\SP\RTPSSh\6-31G(d)\H2Mg1\LCHENG\22-Dec-2016\0\\
 # tpssh/6-31G* symm=loos gfoldprint pop(full)\\Auh2f\\0,1\Mg,0,0.,0.,0
 .000007\H,0,0.,0.,-1.718267\H,0,0.,0.,1.718183\\Version=ES64L-G09RevE.
 01\State=1-SGG\HF=-201.2369798\RMSD=6.138e-10\Dipole=0.,0.,0.\Quadrupo
 le=2.9636762,2.9636762,-5.9273524,0.,0.,0.\PG=D*H [O(Mg1),C*(H1.H1)]\\
 @

 Normal termination of Gaussian 03 at Thu Dec 22 16:12:14 2016.
