 Gaussian 09, Revision E.01,
 Gaussian 09:  ES64L-G09RevE.01 30-Nov-2015

 -------------------------------------
 # tpssh/6-31G* pop(nboread) symm=loos
 -------------------------------------

 -----
 Auh2f
 -----
 Symbolic Z-matrix:
 Charge =  0 Multiplicity = 1

                         Standard orientation:
 ---------------------------------------------------------------------
 Center     Atomic      Atomic             Coordinates (Angstroms)
 Number     Number       Type             X           Y           Z
 ---------------------------------------------------------------------
      1         11           0        0.000000    0.000000    0.158174
      2          1           0        0.000000    0.000000   -1.739916
 ---------------------------------------------------------------------

 SCF Done:  E(RTPSSh) =  -162.843087217     A.U. after   10 cycles

 The electronic state is 1-SG.
 Alpha  occ. eigenvalues --  -38.37951  -2.18677  -1.11327  -1.11327  -1.10966
 Alpha  occ. eigenvalues --   -0.16885
 Alpha virt. eigenvalues --   -0.05478  -0.00180  -0.00180   0.05840   0.07291
 Alpha virt. eigenvalues --    0.12993   0.12993   0.16964   0.34440   0.34440
 Alpha virt. eigenvalues --    0.35940   0.35941   0.46526   0.51010   1.05089

 Mulliken charges:
               1
     1  Na   0.240019
     2  H   -0.240019
 Sum of Mulliken charges =  -0.00000

 Dipole moment (field-independent basis, Debye):
    X=              0.0000    Y=              0.0000    Z=              6.2604  Tot=              6.2604
 Quadrupole moment (field-independent basis, Debye-Ang):
   XX=             -8.9615   YY=             -8.9615   ZZ=            -15.4894
   XY=              0.0000   XZ=              0.0000   YZ=              0.0000

 Summary of Natural Population Analysis:

                                       Natural Population
                Natural  -----------------------------------------------
    Atom  No    Charge         Core      Valence    Rydberg      Total
 -----------------------------------------------------------------------
     Na    1    0.58571      9.99794     0.39735    0.01899    10.41429
      H    2   -0.58571      0.00000     1.58569    0.00002     1.58571
 =======================================================================
   * Total *   -0.00000      9.99794     1.98304    0.01902    12.00000

 1\1\ WCSS.PL-BEM-NODE1\SP\RTPSSh\6-31G(d)\H1Na1\LCHENG\22-Dec-2016\0\\
 # tpssh/6-31G* pop(nboread) symm=loos\\Auh2f\\0,1\Na,0,0.,0.,0.158174\
 H,0,0.,0.,-1.739916\\Version=ES64L-G09RevE.01\State=1-SG\HF=-162.84308
 72\RMSD=1.632e-10\Dipole=0.,0.,2.4630465\Quadrupole=1.6177903,1.617790
 3,-3.2355807,0.,0.,0.\PG=C*V [C*(H1Na1)]\\@

 NO SCIENCE HAS EVER MADE MORE RAPID PROGRESS IN A

 Normal termination of Gaussian 09 at Thu Dec 22 16:27:26 2016.
